% Model:              ns_case1.mph
% Version:            COMSOL 6.0.0.354
% Date:               Apr 6 2023, 11:20
% Dimension:          2
% Nodes:              10201
% Expressions:        3
% Description:        速度场x 分量, 速度场y 分量, 压力
% Length unit:        null
% x                       y                        u @ Re=0.01              v @ Re=0.01              p @ Re=0.01
0                         0                        0                        0                        0
0                         0.020033239867326764     0                        0                        -1.2366339311617411E-5
0                         0.04073541055723117      0                        0                        -9.909913607635679E-5
0                         0.06212884836920138      0                        0                        -2.655015124365246E-4
0                         0.08423663543511653      0                        0                        -4.739163407056681E-4
0                         0.10708262462337005      0                        0                        -6.939194984762233E-4
0                         0.1306914652745676       0                        0                        -9.02017905356476E-4
0                         0.15508862979656687      0                        0                        -0.001079598176285103
0                         0.18030044114755356      0                        0                        -0.001211521015409568
0                         0.2063541012368062       0                        0                        -0.001284871852186624
0                         0.23327772027379193      0                        0                        -0.001287826731350613
0                         0.26110034709725904      0                        0                        -0.0012085605499430228
0                         0.28985200051705073      0                        0                        -0.0010341531004293253
0                         0.31956370170245285      0                        0                        -7.494713202881462E-4
0                         0.35026750765202497      0                        0                        -3.3602185020197814E-4
0                         0.3819965457810215       0                        0                        2.2921886466867564E-4
0                         0.4147850496637248       0                        0                        9.749770358430407E-4
0                         0.4486683959692516       0                        0                        0.0019368211695224458
0                         0.4836831426306842       0                        0                        0.003158211057420554
0                         0.5198670682887094       0                        0                        0.004691363571405248
0                         0.5572592130523215       0                        0                        0.006597789022118611
0                         0.5958999206205682       0                        0                        0.008948273629173857
0                         0.6358308818107847       0                        0                        0.011821973676878322
0                         0.6770951795402824       0                        0                        0.01530415317733114
0                         0.7197373353100214       0                        0                        0.019481924359529133
0                         0.7638033572404237       0                        0                        0.024437224589875076
0                         0.8093407897111503       0                        0                        0.0302360449006274
0                         0.8563987646584036       0                        0                        0.03691314710222901
0                         0.9050280545850997       0                        0                        0.04445103819842977
0                         0.9552811273411066       0                        0                        0.0527539633358498
0                         1.0072122027326516       0                        0                        0.06161484060691988
0                         1.060877311021973        0                        0                        0.07068269602192695
0                         1.116334353380344        0                        0                        0.07942260507119686
0                         1.173643164359677        0                        0                        0.08709436798124132
0                         1.2328655764501246       0                        0                        0.09274238240449412
0                         1.2940654867933286       0                        0                        0.09517593870650612
0                         1.3573089261232905       0                        0                        0.0930361902008034
0                         1.4226641300092515       0                        0                        0.08486186875916886
0                         1.4902016124774429       0                        0                        0.06920208842437685
0                         1.559994242091152        0                        0                        0.04477356303836966
0                         1.6321173205711723       0                        0                        0.010628419763874325
0                         1.7066486640414789       0                        0                        -0.03367790243787177
0                         1.783668686987775        0                        0                        -0.08794597119008415
0                         1.8632604890195128       0                        0                        -0.15124022482385388
0                         1.9455099445289767       0                        0                        -0.22186614835784169
0                         2.030505795344187        0                        0                        -0.29742044609520807
0                         2.118339746475573        0                        0                        -0.3749386537009683
0                         2.209106565059737        0                        0                        -0.4510423678794874
0                         2.302904182607043        0                        0                        -0.5222842314012158
0                         2.3998338006633664       0                        0                        -0.5851879501845665
0                         2.5                      0                        0                        -0.6369381349064128
0                         2.6001661993366336       0                        0                        -0.6739761483604743
0                         2.697095817392957        0                        0                        -0.6958010606770683
0                         2.790893434940263        0                        0                        -0.7047983021235439
0                         2.8816602535244265       0                        0                        -0.7033466492562588
0                         2.9694942046558133       0                        0                        -0.6939992300388674
0                         3.054490055471023        0                        0                        -0.6790530709013131
0                         3.1367395109804876       0                        0                        -0.660557170976133
0                         3.2163313130122244       0                        0                        -0.6401787825090496
0                         3.293351335958521        0                        0                        -0.6192286215485538
0                         3.367882679428829        0                        0                        -0.5986583899432563
0                         3.4400057579088483       0                        0                        -0.5791167598134846
0                         3.509798387522557        0                        0                        -0.5609980033635282
0                         3.577335869990748        0                        0                        -0.5445030874381304
0                         3.6426910738767093       0                        0                        -0.5296908686199795
0                         3.7059345132066706       0                        0                        -0.5165242499108732
0                         3.767134423549876        0                        0                        -0.5049062926231451
0                         3.826356835640322        0                        0                        -0.4947076067756811
0                         3.883665646619656        0                        0                        -0.48578622708623215
0                         3.939122688978026        0                        0                        -0.4780057224716976
0                         3.992787797267349        0                        0                        -0.47124082417906404
0                         4.044718872658892        0                        0                        -0.46537880653084546
0                         4.0949719454149          0                        0                        -0.4603126100487597
0                         4.143601235341595        0                        0                        -0.4559303683088165
0                         4.1906592102888505       0                        0                        -0.45210600946947377
0                         4.236196642759575        0                        0                        -0.4486951133329129
0                         4.280262664689978        0                        0                        -0.4455377250896845
0                         4.322904820459717        0                        0                        -0.44246711821827817
0                         4.364169118189215        0                        0                        -0.43932220290624446
0                         4.404100079379431        0                        0                        -0.4359614676757933
0                         4.442740786947679        0                        0                        -0.4322773093638122
0                         4.480132931711291        0                        0                        -0.42821032553414984
0                         4.516316857369317        0                        0                        -0.4237630819025655
0                         4.551331604030748        0                        0                        -0.4190121090223086
0                         4.585214950336275        0                        0                        -0.4141158806672781
0                         4.618003454218979        0                        0                        -0.40931594450304043
0                         4.649732492347976        0                        0                        -0.4049284464901228
0                         4.680436298297547        0                        0                        -0.4013249266447187
0                         4.71014799948295         0                        0                        -0.39890260873084593
0                         4.73889965290274         0                        0                        -0.39804695492181075
0                         4.766722279726208        0                        0                        -0.3991029896017303
0                         4.793645898763193        0                        0                        -0.40234974783144306
0                         4.819699558852447        0                        0                        -0.40799617584575815
0                         4.844911370203434        0                        0                        -0.4162169857735797
0                         4.869308534725434        0                        0                        -0.42724493515246
0                         4.89291737537663         0                        0                        -0.44155500916157264
0                         4.915763364564883        0                        0                        -0.4602326576441103
0                         4.937871151630799        0                        0                        -0.4856643646285576
0                         4.959264589442769        0                        0                        -0.5227814091223729
0                         4.979966760132673        0                        0                        -0.6000403629729436
0                         5                        0                        0                        -0.6701739035917104
0.020033239867326413      0                        0                        0                        1.2420823195333627E-5
0.020033239867326413      0.10708262462337005      1.8876954081754774E-4    -5.941962774391955E-4    -5.820022416569432E-4
0.020033239867326417      0.04073541055723117      1.2171098424320436E-5    1.8843816892138046E-5    -7.574175833572622E-5
0.020033239867326417      0.062128848369201364     6.824543679611467E-5     -6.695766027026408E-5    -2.1527021887925572E-4
0.02003323986732642       0.020033239867326757     -2.1274736706253557E-5   2.127574985752043E-5     -2.428675196426851E-8
0.02003323986732642       0.13069146527456754      2.430066676930872E-4     -0.0010460005882302493   -7.632594319642633E-4
0.020033239867326427      0.08423663543511653      1.294892349173525E-4     -2.67924955056963E-4     -3.921437264755053E-4
0.020033239867326427      0.15508862979656687      2.9117303460615885E-4    -0.001618855701593937    -9.178582545978261E-4
0.020033239867326427      0.1803004411475535       3.3330475945809925E-4    -0.0023064912632153613   -0.001030499149886257
0.020033239867326427      0.2063541012368062       3.699969767088048E-4     -0.0031025035802385065   -0.0010878086668802435
0.02003323986732643       0.23327772027379193      4.0210666602090477E-4    -0.004001335183324934    -0.0010774012578294862
0.02003323986732643       0.26110034709725904      4.3055586168457786E-4    -0.0049988000462680895   -9.869017639770182E-4
0.020033239867326434      0.28985200051705073      4.561864479271005E-4     -0.006092258199678387    -8.029208414778665E-4
0.020033239867326434      0.31956370170245285      4.7964465228200027E-4    -0.00728047586348652     -5.09984310216378E-4
0.02003323986732644       0.35026750765202486      5.012849397559918E-4     -0.008563177095093124    -8.94203718481657E-5
0.02003323986732644       0.3819965457810215       5.210884251575599E-4     -0.009940277196068999    4.817829951246877E-4
0.020033239867326445      0.4147850496637248       5.385931825330263E-4     -0.011410780042937533    0.00123212816620247
0.020033239867326445      0.4486683959692517       5.52834607730585E-4      -0.012971316467155073    0.0021967290224438863
0.020033239867326448      0.48368314263068424      5.622942883249236E-4     -0.014614296840909192    0.003418344922420787
0.020033239867326448      0.5198670682887094       5.64856489363007E-4      -0.01632564804386111     0.004948235274712767
0.02003323986732645       0.5572592130523215       5.577732115176478E-4     -0.018082105749347932    0.006846689638481255
0.020033239867326455      0.5958999206205682       5.376421682156834E-4     -0.019848042281309895    0.009183011750272694
0.020033239867326455      0.6358308818107845       5.004076762404373E-4     -0.021571838434540812    0.01203462713114126
0.020033239867326462      0.6770951795402824       4.414002667113215E-4     -0.02318185897568449     0.015484854143080517
0.020033239867326465      0.7197373353100214       3.554398463794398E-4     -0.02458219140947008     0.019618703412084375
0.020033239867326465      0.7638033572404237       2.3702702849225316E-4    -0.02564841949147439     0.02451595674944616
0.02003323986732647       0.8093407897111504       8.066325978543378E-5     -0.026223940915734233    0.030240531748373215
0.020033239867326476      0.8563987646584037       -1.1869769025636283E-4   -0.02611739864191492     0.0368254182007403
0.02003323986732648       0.9050280545850997       -3.649985141110596E-4    -0.025102386366378765    0.044251852934856624
0.02003323986732648       0.9552811273411066       -6.603559556806068E-4    -0.022919870475755083    0.052423729472284554
0.020033239867326483      1.0072122027326516       -0.0010040545863269248   -0.019285975758901553    0.06113454150678835
0.020033239867326486      1.060877311021973        -0.0013918041661188688   -0.01390295423054612     0.07003598117610199
0.02003323986732649       1.116334353380344        -0.0018143991428371023   -0.006481571223664407    0.07859567027884441
0.02003323986732649       1.173643164359677        -0.0022575637340581842   0.0032388807828886952    0.08608438047877374
0.0200332398673265        1.2328655764501246       -0.002704319597472757    0.015466182098647663     0.09155027331508281
0.020033239867326504      1.2940654867933286       -0.0031278526401667867   0.030303938206298616     0.09381357347441055
0.02003323986732651       1.3573089261232905       -0.0035032677902929435   0.04772907079381259      0.09152519527436435
0.020033239867326514      1.4226641300092515       -0.003802727487996038    0.06756677143348302      0.08323411877138602
0.020033239867326517      1.4902016124774429       -0.003998868412340167    0.08946342878299728      0.06749911780834938
0.02003323986732652       1.559994242091152        -0.004069614608557922    0.1128805115184176       0.043044722477713716
0.020033239867326524      1.6321173205711725       -0.004000085114083542    0.1371094809529322       0.008928190739874865
0.020033239867326535      1.706648664041479        -0.003784190034503887    0.16130030975285278      -0.035292907203056334
0.02003323986732654       1.7836686869877747       -0.0034255838189361826   0.18450515908862822      -0.0894202802210726
0.020033239867326545      1.8632604890195128       -0.0029374090823996407   0.2057334970407216       -0.15252280663135923
0.020033239867326552      1.945509944528977        -0.002341665300909326    0.22401303085739388      -0.22291334182815442
0.020033239867326556      2.0305057953441876       -0.0016661610707275384   0.23845448845488143      -0.29819836870638733
0.02003323986732656       2.118339746475573        -9.423765447820733E-4    0.24829395549136232      -0.37542446440480837
0.02003323986732657       2.209106565059737        -2.0410551822748452E-4   0.25295926141638275      -0.4512255461137308
0.020033239867326573      2.302904182607043        5.214263554476915E-4     0.2520500728233105       -0.5221652282390459
0.020033239867326587      2.399833800663366        0.0011900054026088604    0.24545169817472717      -0.5847824442843161
0.020033239867326587      2.5                      0.001796694666306136     0.2332649263100735       -0.6362654742815627
0.020033239867326594      2.6001661993366336       0.002291053313983296     0.21636711684688156      -0.6730766694665994
0.020033239867326604      2.697095817392957        0.002638195040952        0.19653617260048295      -0.6947305902492572
0.020033239867326608      2.790893434940263        0.0028629430656911055    0.17505810456949972      -0.703606896277095
0.020033239867326618      2.8816602535244256       0.0029683694947044295    0.15295720705925767      -0.7020826925816673
0.02003323986732662       2.9694942046558137       0.00297112081669549      0.1311322554974729       -0.69270762325129
0.020033239867326625      3.054490055471023        0.0028860315802285465    0.11026450009474226      -0.6777735045765423
0.020033239867326635      3.1367395109804876       0.002731754546715401     0.09086825999175643      -0.6593233282921717
0.02003323986732664       3.2163313130122244       0.0025263560772109815    0.07327573737548151      -0.6390172211077112
0.020033239867326642      3.293351335958521        0.002288298509227338     0.05766882281555739      -0.6181585423538773
0.020033239867326653      3.367882679428829        0.002033846509221718     0.044094798878902816     -0.5976916833614937
0.020033239867326656      3.4400057579088483       0.0017769040838605918    0.03250002938903242      -0.578258829457215
0.02003323986732666       3.509798387522557        0.0015281822829920561    0.022756567677551513     -0.5602487758604286
0.020033239867326663      3.5773358699907485       0.0012953446430342256    0.01469085153425494      -0.543858323988239
0.02003323986732667       3.6426910738767093       0.001083177968697725     0.00810591487443469      -0.5291434037363372
0.020033239867326674      3.705934513206671        8.939363521673825E-4     0.0027998039636751267    -0.5160652843413019
0.020033239867326677      3.7671344235498756       7.279845301034804E-4     -0.0014208860015093455   -0.5045258228191445
0.020033239867326684      3.8263568356403215       5.842176680469579E-4     -0.004732564516245946    -0.4943959686116833
0.020033239867326687      3.8836656466196557       4.6032372002602145E-4    -0.007291575165783879    -0.48553556225574
0.02003323986732669       3.9391226889780255       3.5581796282585103E-4    -0.00923450799602624     -0.4778062816977374
0.020033239867326694      3.992787797267349        2.710644569392174E-4     -0.010685563650837466    -0.47108319454555314
0.020033239867326698      4.044718872658892        2.0889457835232764E-4    -0.011766319834345262    -0.46525231546248114
0.020033239867326698      4.0949719454149          1.7325855692328069E-4    -0.012602339764961452    -0.460205190961994
0.020033239867326705      4.143601235341595        1.6729364461902572E-4    -0.013322785011299314    -0.4558289989211285
0.02003323986732671       4.1906592102888505       1.9092459068212754E-4    -0.014051103170056197    -0.4519981052342463
0.020033239867326712      4.236196642759575        2.39175012555269E-4      -0.01488940962333485     -0.44857057983355175
0.02003323986732672       4.322904820459717        3.6322111646732374E-4    -0.01709832795735778     -0.44230006266734284
0.020033239867326722      4.280262664689978        3.0166280981996164E-4    -0.015901373129365275    -0.44539121547321386
0.020033239867326722      4.364169118189215        4.0518930286811527E-4    -0.01843133387728625     -0.4391443136619896
0.020033239867326722      4.40410007937943         4.0694242846378424E-4    -0.019789758023344768    -0.43579157752047115
0.02003323986732673       4.480132931711291        2.0723334706509175E-4    -0.021863856388037256    -0.428149110517974
0.020033239867326733      4.442740786947679        3.474900591219523E-4     -0.02100574617114725     -0.43214347292233274
0.020033239867326733      4.551331604030748        -3.742884999277316E-4    -0.02149848487267332     -0.41923082018966024
0.020033239867326733      4.585214950336275        -8.274709978960471E-4    -0.019760157885850962    -0.4145469001186365
0.02003323986732674       4.5163168573693175       -2.9955127592206932E-5   -0.022115551065678883    -0.4238179518371817
0.02003323986732674       4.618003454218978        -0.0013803971314104789   -0.016684605678150277    -0.41000408276210454
0.020033239867326743      4.680436298297546        -0.0026883818344287363   -0.006000148524721655    -0.4026230910826891
0.020033239867326743      4.71014799948295         -0.0033672790065246935   0.0016341868173793137    -0.4005230551098756
0.020033239867326746      4.649732492347976        -0.002011799057034931    -0.012119482819597157    -0.4059100229308598
0.020033239867326746      4.73889965290274         -0.004002218341202175    0.010637761610414138     -0.39997648817187503
0.020033239867326746      4.766722279726208        -0.004546204707842091    0.02076385938181937      -0.4013085664299672
0.020033239867326753      4.793645898763193        -0.004961881609783751    0.03168928110338287      -0.4047801426424527
0.020033239867326753      4.819699558852447        -0.005227851814937824    0.04304892215283054      -0.4105841715293122
0.020033239867326753      4.844911370203434        -0.005341088936364612    0.05447450003116832      -0.41887958021051863
0.020033239867326757      4.869308534725435        -0.00530925647360783     0.06561840163590303      -0.42987127797659114
0.020033239867326757      4.979966760132673        0.014648102560853504     0.07248785690675104      -0.5667669233232412
0.02003323986732676       4.915763364564883        -0.004630014793779073    0.08545774685929572      -0.4620001243248208
0.02003323986732676       4.9378711516308          -0.0032794333017132065   0.09233916569719346      -0.4857471054001673
0.02003323986732676       4.959264589442769        5.843602429062145E-4     0.09333860831008198      -0.5183041095178961
0.020033239867326764      4.892917375376629        -0.005116924991348423    0.07612403239841925      -0.4439631179808044
0.020033239867326764      5                        0.09884778814452823      8.856471861008759E-4     -0.6017138203541007
0.04073541055723117       4.892917375376632        -0.015549405938771198    0.12785420256202976      -0.4455874906164578
0.04073541055723117       4.915763364564885        -0.01206042072688837     0.1385071102626209       -0.46140209070715077
0.04073541055723117       4.9378711516308          -0.004137668199950771    0.14087671811981112      -0.48033283977903707
0.04073541055723117       4.95926458944277         0.015420587304758648     0.12657581928700815      -0.5021200136935295
0.04073541055723117       4.979966760132674        0.06913682559908754      0.08070297765947228      -0.5228590465766495
0.04073541055723117       5.000000000000001        0.20152422690783078      2.535954722008986E-4     -0.5320722773922097
0.04073541055723119       4.793645898763195        -0.016791068855790903    0.057020191619485655     -0.4080327492807437
0.04073541055723119       4.819699558852449        -0.017570690131605473    0.07627933919307328      -0.4138800647051634
0.04073541055723119       4.844911370203436        -0.017720248195321798    0.09516259932926815      -0.42202111442708873
0.04073541055723119       4.869308534725435        -0.017140708825293314    0.11275446147631928      -0.43254307821505
0.0407354105572312        4.680436298297549        -0.009294824695967532    -0.009175861643838504    -0.4046424843595734
0.0407354105572312        4.710147999482951        -0.011560831393157976    0.004543859298353398     -0.4029480456432257
0.0407354105572312        4.738899652902741        -0.013666986968719692    0.020488508626386927     -0.40276106386696475
0.0407354105572312        4.766722279726209        -0.01545579536640916     0.03818446833828409      -0.40437871581057744
0.04073541055723121       4.480132931711292        5.981513031571581E-4     -0.03986195246837255     -0.42812571136447314
0.04073541055723121       4.516316857369318        -2.473657895566579E-4    -0.03996705843199811     -0.4240018396495509
0.04073541055723121       4.551331604030749        -0.0014499114597443727   -0.038438264852440965    -0.41968869039541856
0.04073541055723121       4.585214950336277        -0.003010285796945335    -0.03486427589626211     -0.4153403722527595
0.04073541055723121       4.6180034542189805       -0.00489355600630709     -0.02891162008736751     -0.4111828076453431
0.04073541055723121       4.649732492347977        -0.00702565926026145     -0.02036762714160367     -0.40750511919092947
0.04073541055723122       4.280262664689979        0.0010968802074909497    -0.029250920792180227    -0.4451184542316636
0.04073541055723122       4.322904820459719        0.0012788500442746827    -0.03159930945439547     -0.4420110420075039
0.04073541055723122       4.364169118189216        0.0013895906491497576    -0.03408950205627257     -0.43885831936574166
0.04073541055723123       4.4041000793794325       0.0013589512593261287    -0.036514197748171495    -0.4355422608299835
0.04073541055723123       4.44274078694768         0.0011165663108008684    -0.03856664849783805     -0.43197800192252894
0.04073541055723124       4.143601235341597        7.027288093831697E-4     -0.02348136756296591     -0.4555947222918025
0.04073541055723124       4.190659210288851        7.642225087596015E-4     -0.02525506491828708     -0.45176291550670566
0.04073541055723124       4.236196642759576        9.078007780133467E-4     -0.027140867394212512    -0.4483196633746233
0.04073541055723126       3.9927877972673502       0.001117409029717529     -0.016771055414256376    -0.47072656444501276
0.04073541055723126       4.044718872658893        8.830105044161154E-4     -0.0194792286590885      -0.4649579889322796
0.04073541055723126       4.094971945414901        7.417208694263955E-4     -0.02163319526920136     -0.45995182446178245
0.04073541055723127       3.8263568356403237       0.0022739374564204606    -0.002839888755891501    -0.49374157806423713
0.04073541055723127       3.883665646619658        0.0018189927417446004    -0.008700937753724308    -0.48499685338469817
0.04073541055723127       3.9391226889780273       0.0014323104390163639    -0.013260234346629584    -0.47736789672787616
0.04073541055723128       3.705934513206672        0.0034067975357947315    0.013923129875246168     -0.5151291024749541
0.04073541055723128       3.7671344235498774       0.0028018769164495612    0.004599354032536861     -0.5037392173900404
0.0407354105572313        3.5773358699907494       0.004850650372931485     0.039597217113602486     -0.5425777850259762
0.0407354105572313        3.6426910738767093       0.004090618742181447     0.02546911488793662      -0.5280418231795575
0.04073541055723131       3.4400057579088483       0.006547925652692573     0.07701331604071722      -0.5765987078705688